                         Program Version 5.0.3 -  RELEASE  -
|  1> # avogadro generated ORCA input file
|  2> # Basic Mode
|  3> #
|  4> ! MP2 OPT def2-SVP
|  5>
|  6> * xyz 0 1
|  7>    N        0.79335        0.14662       -0.14366
|  8>    H        1.62792       -0.34353       -0.53320
|  9>    H        0.78349        1.12203       -0.51377
| 10>    H        0.89346        0.19055        0.89391
| 11> *
| 12>
| 13>
| 14>                          ****END OF INPUT****
 Total Charge           Charge          ....    0
 Multiplicity           Mult            ....    1
 Number of Electrons    NEL             ....   10
MP2 TOTAL ENERGY:      -56.332894551 Eh
FINAL SINGLE POINT ENERGY       -56.332894550954
MP2 TOTAL ENERGY:      -56.335168343 Eh
FINAL SINGLE POINT ENERGY       -56.335168342837
MP2 TOTAL ENERGY:      -56.335307973 Eh
FINAL SINGLE POINT ENERGY       -56.335307973416
MP2 TOTAL ENERGY:      -56.335366484 Eh
FINAL SINGLE POINT ENERGY       -56.335366484100
MP2 TOTAL ENERGY:      -56.335368486 Eh
FINAL SINGLE POINT ENERGY       -56.335368485670
                    ***********************HURRAY********************

CARTESIAN COORDINATES (ANGSTROEM)
---------------------------------
  N      0.766359    0.131187   -0.151764
  H      1.613398   -0.308590   -0.508944
  H      0.806702    1.091472   -0.490404
  H      0.911760    0.201601    0.854393

 Multiplicity           Mult            ....    1
 Number of Electrons    NEL             ....   10
 Basis Dimension        Dim             ....   29

ORBITAL ENERGIES
----------------

  NO   OCC          E(Eh)            E(eV)
   0   2.0000     -15.539210      -422.8434
   1   2.0000      -1.119999       -30.4767
   2   2.0000      -0.615533       -16.7495
   3   2.0000      -0.615522       -16.7492
   4   2.0000      -0.425796       -11.5865
   5   0.0000       0.175622         4.7789
   6   0.0000       0.269475         7.3328
   7   0.0000       0.269476         7.3328
   8   0.0000       0.730355        19.8740
   9   0.0000       0.730372        19.8744

MULLIKEN ATOMIC CHARGES
-----------------------
   0 N :   -0.288163
   1 H :    0.096052
   2 H :    0.096055
   3 H :    0.096055
Sum of atomic charges:   -0.0000000

LOEWDIN ATOMIC CHARGES
----------------------
   0 N :   -0.160256
   1 H :    0.053419
   2 H :    0.053419
   3 H :    0.053419

  Mayer bond orders larger than 0.100000
B(  0-N ,  1-H ) :   0.9533 B(  0-N ,  2-H ) :   0.9533 B(  0-N ,  3-H ) :   0.9533

MP2 TOTAL ENERGY:      -56.335368541 Eh
FINAL SINGLE POINT ENERGY       -56.335368541207

DIPOLE MOMENT
-------------
                                X             Y             Z
Electronic contribution:     -0.19229      -0.11001      -0.05777
Nuclear contribution   :      0.79655       0.45576       0.23935
                        -----------------------------------------
Total Dipole Moment    :      0.60426       0.34575       0.18158
                        -----------------------------------------
Magnitude (a.u.)       :      0.71948
Magnitude (Debye)      :      1.82876

Rotational constants in cm-1:     9.722218     9.721807     6.404383
Rotational constants in MHz : 291464.763500 291452.444518 191998.584525

                             ****ORCA TERMINATED NORMALLY****
TOTAL RUN TIME: 0 days 0 hours 0 minutes 21 seconds 380 msec
